   12
 Frame = 16  energy =    -36.400278    v2_tot =      0.000000  v3_tot =      0.000000
Al         -0.830763          0.406611          0.074694
Al         -0.696639         -0.590415          0.164873
Al         -0.668260         -0.157329         -0.745534
Al         -0.274453          0.037661          0.824580
Al         -0.208052          0.762518         -0.634370
Al          0.014228         -0.889830         -0.484919
Al          0.030362          0.862687          0.340481
Al          0.034410         -0.004722         -0.103382
Al          0.247380         -0.750536          0.486393
Al          0.696691          0.147531          0.594925
Al          0.758860          0.598515         -0.305051
Al          0.896237         -0.422692         -0.212687
   12
 Frame = 16  energy =    -34.838761    v2_tot =      0.000000  v3_tot =      0.000000
Al         -0.756420          0.646258         -0.662235
Al          0.245147          0.744624         -0.640170
Al         -0.181438         -0.153364         -0.564675
Al         -0.615569         -0.990073         -0.263069
Al          0.387090         -0.904401         -0.237909
Al          0.610184          0.045013         -0.030786
Al         -1.007435         -0.093353         -0.027202
Al         -0.255008          0.526247          0.182573
Al          0.615569          0.990073          0.263070
Al         -0.173738         -0.417896          0.412887
Al          0.756421         -0.646258          0.662234
Al          0.375198          0.253129          0.905280
   12
 Frame = 16  energy =    -34.690759    v2_tot =      0.000000  v3_tot =      0.000000
Al         -0.324359         -0.448473         -0.863500
Al          0.255948          0.321721         -0.610538
Al         -0.728561          0.426098         -0.497154
Al          0.547655         -0.595184         -0.373546
Al          0.803817          1.016711         -0.156012
Al         -0.229680         -1.156357         -0.135095
Al         -0.249123         -0.198561          0.072536
Al         -0.092672          0.774774          0.203085
Al          0.664857          0.135868          0.285089
Al         -0.935075          0.354874          0.500560
Al          0.345813         -0.753073          0.604369
Al         -0.058621          0.121604          0.970206
